! Sonnet Data File
! From: emgraph Version : 16.54
! From Emgraph Data: ReadoutResonator_9
! Data File Written: 09/13/2017 12:27:09
!< HDATE 09/12/2017 16:59:21
!< MDATE 09/12/2017 16:59:21
!< PARAMS
!< sep = 7.5
!< len = 3425.0
!< END PARAMS
# GHZ S RI R 50.00000
7.35000000 0.003816 0.010361 0.934531 -0.35561 0.007188 -3.74e-3
           0.934531 -0.35561 0.004099 0.010253 -7.18e-3 0.003764
           0.007188 -3.74e-3 -7.18e-3 0.003764 0.831910 -0.55479
!< P1 F=7.35 Eeff=(6.45012534 -2.9749e-5) Z0=(49.8280928 1.14921e-4) R=0.03419519 C=0.00292074 
!< P2 F=7.35 Eeff=(6.45012534 -2.9749e-5) Z0=(49.8280928 1.14921e-4) R=0.03419519 C=0.00292074 
!< P3 F=7.35 Eeff=(6.44872238 -2.9737e-5) Z0=(51.7952585 1.19484e-4) R=0.03483063 C=0.00286872 
7.35100000 0.003847 0.010438 0.934483 -0.35573 0.007260 -3.78e-3
           0.934483 -0.35573 0.004131 0.010329 -7.25e-3 0.003804
           0.007260 -3.78e-3 -7.25e-3 0.003804 0.831813 -0.55493
7.35200000 0.003879 0.010515 0.934435 -0.35586 0.007334 -3.82e-3
           0.934435 -0.35586 0.004163 0.010407 -7.32e-3 0.003844
           0.007334 -3.82e-3 -7.32e-3 0.003844 0.831716 -0.55507
7.35300000 0.003911 0.010594 0.934386 -0.35598 0.007410 -3.86e-3
           0.934386 -0.35598 0.004196 0.010486 -7.40e-3 0.003886
           0.007410 -3.86e-3 -7.40e-3 0.003886 0.831617 -0.55522
7.35400000 0.003944 0.010675 0.934336 -0.35610 0.007487 -3.91e-3
           0.934336 -0.35610 0.004229 0.010566 -7.47e-3 0.003928
           0.007487 -3.91e-3 -7.47e-3 0.003928 0.831518 -0.55536
7.35500000 0.003978 0.010758 0.934286 -0.35623 0.007565 -3.95e-3
           0.934286 -0.35623 0.004264 0.010649 -7.55e-3 0.003971
           0.007565 -3.95e-3 -7.55e-3 0.003971 0.831417 -0.55551
7.35600000 0.004012 0.010842 0.934234 -0.35636 0.007645 -3.99e-3
           0.934234 -0.35636 0.004298 0.010732 -7.63e-3 0.004015
           0.007645 -3.99e-3 -7.63e-3 0.004015 0.831316 -0.55566
7.35700000 0.004047 0.010928 0.934182 -0.35649 0.007727 -4.04e-3
           0.934182 -0.35649 0.004334 0.010818 -7.71e-3 0.004060
           0.007727 -4.04e-3 -7.71e-3 0.004060 0.831213 -0.55581
7.35800000 0.004083 0.011015 0.934130 -0.35662 0.007810 -4.08e-3
           0.934130 -0.35662 0.004370 0.010905 -7.80e-3 0.004106
           0.007810 -4.08e-3 -7.80e-3 0.004106 0.831109 -0.55596
7.35900000 0.004120 0.011105 0.934076 -0.35676 0.007896 -4.13e-3
           0.934076 -0.35676 0.004408 0.010994 -7.88e-3 0.004153
           0.007896 -4.13e-3 -7.88e-3 0.004153 0.831004 -0.55612
7.36000000 0.004157 0.011196 0.934022 -0.35689 0.007983 -4.18e-3
           0.934022 -0.35689 0.004446 0.011085 -7.97e-3 0.004201
           0.007983 -4.18e-3 -7.97e-3 0.004201 0.830898 -0.55627
7.36100000 0.004195 0.011289 0.933967 -0.35703 0.008071 -4.23e-3
           0.933967 -0.35703 0.004484 0.011178 -8.06e-3 0.004250
           0.008071 -4.23e-3 -8.06e-3 0.004250 0.830790 -0.55643
7.36200000 0.004234 0.011385 0.933911 -0.35717 0.008162 -4.28e-3
           0.933911 -0.35717 0.004524 0.011273 -8.15e-3 0.004300
           0.008162 -4.28e-3 -8.15e-3 0.004300 0.830681 -0.55659
7.36300000 0.004274 0.011482 0.933854 -0.35732 0.008255 -4.33e-3
           0.933854 -0.35732 0.004565 0.011371 -8.24e-3 0.004351
           0.008255 -4.33e-3 -8.24e-3 0.004351 0.830570 -0.55675
7.36400000 0.004315 0.011581 0.933796 -0.35746 0.008350 -4.38e-3
           0.933796 -0.35746 0.004606 0.011470 -8.34e-3 0.004404
           0.008350 -4.38e-3 -8.34e-3 0.004404 0.830459 -0.55691
7.36500000 0.004357 0.011683 0.933738 -0.35761 0.008447 -4.43e-3
           0.933738 -0.35761 0.004649 0.011571 -8.43e-3 0.004457
           0.008447 -4.43e-3 -8.43e-3 0.004457 0.830345 -0.55708
7.36600000 0.004400 0.011787 0.933678 -0.35776 0.008546 -4.49e-3
           0.933678 -0.35776 0.004692 0.011675 -8.53e-3 0.004512
           0.008546 -4.49e-3 -8.53e-3 0.004512 0.830231 -0.55724
7.36700000 0.004444 0.011894 0.933617 -0.35791 0.008647 -4.54e-3
           0.933617 -0.35791 0.004737 0.011781 -8.63e-3 0.004569
           0.008647 -4.54e-3 -8.63e-3 0.004569 0.830114 -0.55741
7.36800000 0.004489 0.012003 0.933555 -0.35806 0.008751 -4.60e-3
           0.933555 -0.35806 0.004782 0.011890 -8.74e-3 0.004626
           0.008751 -4.60e-3 -8.74e-3 0.004626 0.829996 -0.55759
7.36900000 0.004535 0.012114 0.933492 -0.35822 0.008857 -4.66e-3
           0.933492 -0.35822 0.004829 0.012001 -8.84e-3 0.004685
           0.008857 -4.66e-3 -8.84e-3 0.004685 0.829876 -0.55776
7.37000000 0.004582 0.012228 0.933428 -0.35838 0.008966 -4.72e-3
           0.933428 -0.35838 0.004877 0.012114 -8.95e-3 0.004746
           0.008966 -4.72e-3 -8.95e-3 0.004746 0.829755 -0.55794
7.37100000 0.004630 0.012345 0.933363 -0.35854 0.009077 -4.78e-3
           0.933363 -0.35854 0.004926 0.012231 -9.06e-3 0.004808
           0.009077 -4.78e-3 -9.06e-3 0.004808 0.829632 -0.55811
7.37200000 0.004680 0.012465 0.933296 -0.35870 0.009191 -4.84e-3
           0.933296 -0.35870 0.004976 0.012350 -9.18e-3 0.004871
           0.009191 -4.84e-3 -9.18e-3 0.004871 0.829507 -0.55829
7.37300000 0.004730 0.012587 0.933228 -0.35887 0.009308 -4.91e-3
           0.933228 -0.35887 0.005028 0.012472 -9.29e-3 0.004936
           0.009308 -4.91e-3 -9.29e-3 0.004936 0.829379 -0.55848
7.37400000 0.004782 0.012713 0.933159 -0.35904 0.009428 -4.98e-3
           0.933159 -0.35904 0.005081 0.012598 -9.41e-3 0.005003
           0.009428 -4.98e-3 -9.41e-3 0.005003 0.829250 -0.55866
7.37500000 0.004836 0.012842 0.933089 -0.35921 0.009550 -5.04e-3
           0.933089 -0.35921 0.005135 0.012726 -9.53e-3 0.005072
           0.009550 -5.04e-3 -9.53e-3 0.005072 0.829119 -0.55885
7.37600000 0.004891 0.012974 0.933017 -0.35939 0.009676 -5.11e-3
           0.933017 -0.35939 0.005191 0.012858 -9.66e-3 0.005142
           0.009676 -5.11e-3 -9.66e-3 0.005142 0.828986 -0.55905
7.37700000 0.004947 0.013109 0.932943 -0.35957 0.009805 -5.19e-3
           0.932943 -0.35957 0.005248 0.012993 -9.79e-3 0.005214
           0.009805 -5.19e-3 -9.79e-3 0.005214 0.828850 -0.55924
7.37800000 0.005005 0.013248 0.932868 -0.35975 0.009938 -5.26e-3
           0.932868 -0.35975 0.005307 0.013131 -9.92e-3 0.005288
           0.009938 -5.26e-3 -9.92e-3 0.005288 0.828712 -0.55944
7.37900000 0.005065 0.013391 0.932792 -0.35994 0.010074 -5.34e-3
           0.932792 -0.35994 0.005368 0.013274 -0.01006 0.005365
           0.010074 -5.34e-3 -0.01006 0.005365 0.828571 -0.55964
7.38000000 0.005126 0.013537 0.932713 -0.36013 0.010214 -5.41e-3
           0.932713 -0.36013 0.005430 0.013420 -0.01020 0.005443
           0.010214 -5.41e-3 -0.01020 0.005443 0.828428 -0.55985
7.38100000 0.005189 0.013688 0.932633 -0.36033 0.010357 -5.49e-3
           0.932633 -0.36033 0.005494 0.013570 -0.01034 0.005524
           0.010357 -5.49e-3 -0.01034 0.005524 0.828282 -0.56006
7.38200000 0.005254 0.013843 0.932551 -0.36053 0.010504 -5.58e-3
           0.932551 -0.36053 0.005560 0.013724 -0.01049 0.005607
           0.010504 -5.58e-3 -0.01049 0.005607 0.828134 -0.56027
7.38300000 0.005321 0.014002 0.932467 -0.36073 0.010656 -5.66e-3
           0.932467 -0.36073 0.005627 0.013883 -0.01064 0.005692
           0.010656 -5.66e-3 -0.01064 0.005692 0.827982 -0.56048
7.38400000 0.005389 0.014165 0.932382 -0.36094 0.010812 -5.75e-3
           0.932382 -0.36094 0.005697 0.014046 -0.01079 0.005780
           0.010812 -5.75e-3 -0.01079 0.005780 0.827827 -0.56070
7.38500000 0.005460 0.014334 0.932294 -0.36115 0.010972 -5.84e-3
           0.932294 -0.36115 0.005769 0.014213 -0.01095 0.005871
           0.010972 -5.84e-3 -0.01095 0.005871 0.827670 -0.56093
7.38600000 0.005533 0.014507 0.932203 -0.36137 0.011137 -5.93e-3
           0.932203 -0.36137 0.005843 0.014386 -0.01112 0.005964
           0.011137 -5.93e-3 -0.01112 0.005964 0.827509 -0.56116
7.38700000 0.005609 0.014685 0.932111 -0.36159 0.011307 -6.03e-3
           0.932111 -0.36159 0.005920 0.014564 -0.01129 0.006061
           0.011307 -6.03e-3 -0.01129 0.006061 0.827344 -0.56139
7.38800000 0.005686 0.014869 0.932016 -0.36182 0.011482 -6.13e-3
           0.932016 -0.36182 0.005998 0.014747 -0.01146 0.006160
           0.011482 -6.13e-3 -0.01146 0.006160 0.827176 -0.56163
7.38900000 0.005766 0.015058 0.931918 -0.36206 0.011663 -6.23e-3
           0.931918 -0.36206 0.006080 0.014936 -0.01164 0.006263
           0.011663 -6.23e-3 -0.01164 0.006263 0.827004 -0.56187
7.39000000 0.005849 0.015253 0.931818 -0.36230 0.011849 -6.33e-3
           0.931818 -0.36230 0.006164 0.015130 -0.01183 0.006369
           0.011849 -6.33e-3 -0.01183 0.006369 0.826828 -0.56212
7.39100000 0.005935 0.015455 0.931715 -0.36254 0.012041 -6.44e-3
           0.931715 -0.36254 0.006251 0.015331 -0.01202 0.006478
           0.012041 -6.44e-3 -0.01202 0.006478 0.826648 -0.56238
7.39200000 0.006023 0.015663 0.931610 -0.36279 0.012239 -6.55e-3
           0.931610 -0.36279 0.006341 0.015538 -0.01222 0.006591
           0.012239 -6.55e-3 -0.01222 0.006591 0.826463 -0.56264
7.39300000 0.006115 0.015877 0.931501 -0.36305 0.012443 -6.67e-3
           0.931501 -0.36305 0.006434 0.015752 -0.01242 0.006708
           0.012443 -6.67e-3 -0.01242 0.006708 0.826274 -0.56290
7.39400000 0.006210 0.016099 0.931388 -0.36332 0.012655 -6.79e-3
           0.931388 -0.36332 0.006530 0.015974 -0.01263 0.006829
           0.012655 -6.79e-3 -0.01263 0.006829 0.826080 -0.56317
7.39500000 0.006308 0.016328 0.931273 -0.36359 0.012873 -6.92e-3
           0.931273 -0.36359 0.006629 0.016202 -0.01285 0.006954
           0.012873 -6.92e-3 -0.01285 0.006954 0.825880 -0.56345
7.39600000 0.006410 0.016565 0.931154 -0.36388 0.013099 -7.05e-3
           0.931154 -0.36388 0.006733 0.016438 -0.01308 0.007084
           0.013099 -7.05e-3 -0.01308 0.007084 0.825676 -0.56374
7.39700000 0.006515 0.016811 0.931031 -0.36417 0.013333 -7.18e-3
           0.931031 -0.36417 0.006840 0.016683 -0.01331 0.007219
           0.013333 -7.18e-3 -0.01331 0.007219 0.825466 -0.56403
7.39800000 0.006625 0.017065 0.930904 -0.36446 0.013575 -7.32e-3
           0.930904 -0.36446 0.006951 0.016936 -0.01355 0.007358
           0.013575 -7.32e-3 -0.01355 0.007358 0.825249 -0.56433
7.39900000 0.006739 0.017328 0.930772 -0.36477 0.013826 -7.46e-3
           0.930772 -0.36477 0.007066 0.017199 -0.01380 0.007503
           0.013826 -7.46e-3 -0.01380 0.007503 0.825027 -0.56464
7.40000000 0.006857 0.017601 0.930637 -0.36509 0.014086 -7.61e-3
           0.930637 -0.36509 0.007186 0.017471 -0.01406 0.007654
           0.014086 -7.61e-3 -0.01406 0.007654 0.824797 -0.56496
7.40100000 0.006980 0.017884 0.930496 -0.36542 0.014355 -7.77e-3
           0.930496 -0.36542 0.007311 0.017753 -0.01433 0.007811
           0.014355 -7.77e-3 -0.01433 0.007811 0.824561 -0.56529
7.40200000 0.007108 0.018178 0.930350 -0.36576 0.014635 -7.93e-3
           0.930350 -0.36576 0.007441 0.018046 -0.01461 0.007974
           0.014635 -7.93e-3 -0.01461 0.007974 0.824317 -0.56562
7.40300000 0.007242 0.018483 0.930199 -0.36611 0.014926 -8.10e-3
           0.930199 -0.36611 0.007576 0.018351 -0.01490 0.008143
           0.014926 -8.10e-3 -0.01490 0.008143 0.824065 -0.56597
7.40400000 0.007381 0.018801 0.930043 -0.36647 0.015229 -8.27e-3
           0.930043 -0.36647 0.007717 0.018667 -0.01520 0.008320
           0.015229 -8.27e-3 -0.01520 0.008320 0.823804 -0.56633
7.40500000 0.007526 0.019131 0.929880 -0.36684 0.015543 -8.46e-3
           0.929880 -0.36684 0.007864 0.018997 -0.01552 0.008504
           0.015543 -8.46e-3 -0.01552 0.008504 0.823535 -0.56670
7.40600000 0.007677 0.019476 0.929710 -0.36723 0.015871 -8.65e-3
           0.929710 -0.36723 0.008018 0.019340 -0.01584 0.008697
           0.015871 -8.65e-3 -0.01584 0.008697 0.823256 -0.56708
7.40700000 0.007836 0.019834 0.929534 -0.36763 0.016213 -8.85e-3
           0.929534 -0.36763 0.008179 0.019697 -0.01618 0.008898
           0.016213 -8.85e-3 -0.01618 0.008898 0.822966 -0.56747
7.40800000 0.008002 0.020208 0.929350 -0.36805 0.016569 -9.06e-3
           0.929350 -0.36805 0.008347 0.020071 -0.01654 0.009109
           0.016569 -9.06e-3 -0.01654 0.009109 0.822666 -0.56788
7.40900000 0.008176 0.020599 0.929159 -0.36849 0.016941 -9.28e-3
           0.929159 -0.36849 0.008523 0.020460 -0.01691 0.009329
           0.016941 -9.28e-3 -0.01691 0.009329 0.822354 -0.56830
7.41000000 0.008358 0.021007 0.928958 -0.36894 0.017329 -9.51e-3
           0.928958 -0.36894 0.008708 0.020867 -0.01730 0.009560
           0.017329 -9.51e-3 -0.01730 0.009560 0.822030 -0.56874
7.41100000 0.008549 0.021435 0.928749 -0.36941 0.017736 -9.75e-3
           0.928749 -0.36941 0.008902 0.021293 -0.01770 0.009802
           0.017736 -9.75e-3 -0.01770 0.009802 0.821692 -0.56919
7.41200000 0.008751 0.021882 0.928530 -0.36990 0.018161 -0.01000
           0.928530 -0.36990 0.009106 0.021739 -0.01813 0.010057
           0.018161 -0.01000 -0.01813 0.010057 0.821339 -0.56967
7.41300000 0.008963 0.022351 0.928300 -0.37042 0.018607 -0.01027
           0.928300 -0.37042 0.009321 0.022206 -0.01857 0.010324
           0.018607 -0.01027 -0.01857 0.010324 0.820971 -0.57016
7.41400000 0.009186 0.022843 0.928058 -0.37095 0.019075 -0.01055
           0.928058 -0.37095 0.009547 0.022697 -0.01904 0.010606
           0.019075 -0.01055 -0.01904 0.010606 0.820586 -0.57067
7.41405580 0.009199 0.022871 0.928044 -0.37098 0.019102 -0.01057
           0.928044 -0.37098 0.009560 0.022725 -0.01907 0.010623
           0.019102 -0.01057 -0.01907 0.010623 0.820564 -0.57070
7.41500000 0.009422 0.023361 0.927804 -0.37152 0.019567 -0.01085
           0.927804 -0.37152 0.009786 0.023213 -0.01953 0.010904
           0.019567 -0.01085 -0.01953 0.010904 0.820183 -0.57120
7.41508741 0.009443 0.023407 0.927781 -0.37157 0.019611 -0.01087
           0.927781 -0.37157 0.009808 0.023259 -0.01958 0.010931
           0.019611 -0.01087 -0.01958 0.010931 0.820147 -0.57125
7.41600000 0.009671 0.023905 0.927536 -0.37210 0.020085 -0.01116
           0.927536 -0.37210 0.010039 0.023756 -0.02005 0.011218
           0.020085 -0.01116 -0.02005 0.011218 0.819761 -0.57176
7.41609539 0.009696 0.023958 0.927510 -0.37216 0.020135 -0.01119
           0.927510 -0.37216 0.010064 0.023809 -0.02010 0.011249
           0.020135 -0.01119 -0.02010 0.011249 0.819719 -0.57181
7.41700000 0.009935 0.024478 0.927254 -0.37272 0.020630 -0.01149
           0.927254 -0.37272 0.010306 0.024327 -0.02059 0.011550
           0.020630 -0.01149 -0.02059 0.011550 0.819317 -0.57234
7.41708026 0.009957 0.024526 0.927231 -0.37277 0.020675 -0.01152
           0.927231 -0.37277 0.010328 0.024374 -0.02064 0.011578
           0.020675 -0.01152 -0.02064 0.011578 0.819280 -0.57239
7.41800000 0.010215 0.025083 0.926956 -0.37337 0.021204 -0.01184
           0.926956 -0.37337 0.010590 0.024930 -0.02117 0.011903
           0.021204 -0.01184 -0.02117 0.011903 0.818849 -0.57295
7.41804257 0.010227 0.025110 0.926942 -0.37340 0.021230 -0.01186
           0.926942 -0.37340 0.010602 0.024957 -0.02119 0.011918
           0.021230 -0.01186 -0.02119 0.011918 0.818829 -0.57298
7.41898283 0.010507 0.025711 0.926645 -0.37404 0.021801 -0.01221
           0.926645 -0.37404 0.010886 0.025556 -0.02176 0.012270
           0.021801 -0.01221 -0.02176 0.012270 0.818366 -0.57358
7.41900000 0.010512 0.025723 0.926640 -0.37405 0.021812 -0.01221
           0.926640 -0.37405 0.010891 0.025568 -0.02177 0.012276
           0.021812 -0.01221 -0.02177 0.012276 0.818357 -0.57360
7.41990154 0.010797 0.026331 0.926338 -0.37470 0.022389 -0.01257
           0.926338 -0.37470 0.011179 0.026174 -0.02235 0.012633
           0.022389 -0.01257 -0.02235 0.012633 0.817889 -0.57420
7.42000000 0.010829 0.026399 0.926304 -0.37477 0.022454 -0.01261
           0.926304 -0.37477 0.011212 0.026242 -0.02241 0.012674
           0.022454 -0.01261 -0.02241 0.012674 0.817837 -0.57427
7.42079921 0.011097 0.026969 0.926021 -0.37538 0.022995 -0.01294
           0.926021 -0.37538 0.011483 0.026810 -0.02295 0.013010
           0.022995 -0.01294 -0.02295 0.013010 0.817399 -0.57483
7.42100000 0.011166 0.027116 0.925948 -0.37553 0.023135 -0.01303
           0.925948 -0.37553 0.011553 0.026957 -0.02309 0.013097
           0.023135 -0.01303 -0.02309 0.013097 0.817286 -0.57498
7.42167630 0.011407 0.027626 0.925694 -0.37607 0.023619 -0.01333
           0.925694 -0.37607 0.011798 0.027465 -0.02358 0.013399
           0.023619 -0.01333 -0.02358 0.013399 0.816895 -0.57548
7.42200000 0.011527 0.027878 0.925568 -0.37634 0.023857 -0.01348
           0.925568 -0.37634 0.011919 0.027716 -0.02381 0.013548
           0.023857 -0.01348 -0.02381 0.013548 0.816702 -0.57573
7.42253330 0.011730 0.028303 0.925355 -0.37679 0.024261 -0.01373
           0.925355 -0.37679 0.012124 0.028140 -0.02422 0.013802
           0.024261 -0.01373 -0.02422 0.013802 0.816376 -0.57614
7.42300000 0.011913 0.028688 0.925163 -0.37719 0.024626 -0.01396
           0.925163 -0.37719 0.012310 0.028523 -0.02458 0.014032
           0.024626 -0.01396 -0.02458 0.014032 0.816082 -0.57652
7.42337065 0.012064 0.029001 0.925005 -0.37752 0.024923 -0.01415
           0.925005 -0.37752 0.012462 0.028836 -0.02488 0.014219
           0.024923 -0.01415 -0.02488 0.014219 0.815841 -0.57682
7.42400000 0.012328 0.029551 0.924728 -0.37810 0.025444 -0.01447
           0.924728 -0.37810 0.012730 0.029384 -0.02540 0.014550
           0.025444 -0.01447 -0.02540 0.014550 0.815420 -0.57735
7.42418883 0.012410 0.029720 0.924643 -0.37828 0.025605 -0.01458
           0.924643 -0.37828 0.012813 0.029553 -0.02556 0.014652
           0.025605 -0.01458 -0.02556 0.014652 0.815291 -0.57752
7.42498825 0.012769 0.030462 0.924268 -0.37905 0.026308 -0.01502
           0.924268 -0.37905 0.013177 0.030292 -0.02626 0.015100
           0.026308 -0.01502 -0.02626 0.015100 0.814722 -0.57823
7.42500000 0.012775 0.030473 0.924262 -0.37907 0.026318 -0.01503
           0.924262 -0.37907 0.013182 0.030303 -0.02627 0.015107
           0.026318 -0.01503 -0.02627 0.015107 0.814714 -0.57824
7.42576936 0.013142 0.031226 0.923880 -0.37985 0.027032 -0.01548
           0.923880 -0.37985 0.013554 0.031054 -0.02698 0.015564
           0.027032 -0.01548 -0.02698 0.015564 0.814136 -0.57896
7.42600000 0.013257 0.031460 0.923761 -0.38010 0.027253 -0.01563
           0.923761 -0.38010 0.013670 0.031287 -0.02720 0.015707
           0.027253 -0.01563 -0.02720 0.015707 0.813957 -0.57918
7.42653257 0.013529 0.032015 0.923478 -0.38067 0.027779 -0.01596
           0.923478 -0.38067 0.013946 0.031839 -0.02773 0.016046
           0.027779 -0.01596 -0.02773 0.016046 0.813532 -0.57971
7.42700000 0.013778 0.032519 0.923219 -0.38120 0.028256 -0.01627
           0.923219 -0.38120 0.014198 0.032342 -0.02820 0.016355
           0.028256 -0.01627 -0.02820 0.016355 0.813144 -0.58019
7.42727829 0.013931 0.032828 0.923061 -0.38152 0.028549 -0.01646
           0.923061 -0.38152 0.014353 0.032650 -0.02850 0.016545
           0.028549 -0.01646 -0.02850 0.016545 0.812907 -0.58048
7.42800000 0.014345 0.033659 0.922632 -0.38238 0.029335 -0.01697
           0.922632 -0.38238 0.014772 0.033478 -0.02928 0.017058
           0.029335 -0.01697 -0.02928 0.017058 0.812268 -0.58127
7.42800692 0.014349 0.033667 0.922628 -0.38239 0.029343 -0.01698
           0.922628 -0.38239 0.014776 0.033486 -0.02929 0.017063
           0.029343 -0.01698 -0.02929 0.017063 0.812262 -0.58128
7.42871886 0.014783 0.034533 0.922180 -0.38329 0.030162 -0.01751
           0.922180 -0.38329 0.015215 0.034349 -0.03010 0.017601
           0.030162 -0.01751 -0.03010 0.017601 0.811594 -0.58209
7.42900000 0.014962 0.034888 0.921995 -0.38365 0.030498 -0.01773
           0.921995 -0.38365 0.015396 0.034703 -0.03044 0.017823
           0.030498 -0.01773 -0.03044 0.017823 0.811320 -0.58242
7.42941448 0.015235 0.035426 0.921714 -0.38421 0.031007 -0.01807
           0.921714 -0.38421 0.015672 0.035240 -0.03095 0.018160
           0.031007 -0.01807 -0.03095 0.018160 0.810904 -0.58292
7.43000000 0.015637 0.036218 0.921299 -0.38503 0.031755 -0.01856
           0.921299 -0.38503 0.016080 0.036029 -0.03169 0.018657
           0.031755 -0.01856 -0.03169 0.018657 0.810292 -0.58366
7.43009417 0.015704 0.036349 0.921230 -0.38516 0.031878 -0.01865
           0.921230 -0.38516 0.016147 0.036159 -0.03182 0.018740
           0.031878 -0.01865 -0.03182 0.018740 0.810190 -0.58378
7.43075828 0.016193 0.037301 0.920727 -0.38614 0.032778 -0.01925
           0.920727 -0.38614 0.016642 0.037108 -0.03272 0.019343
           0.032778 -0.01925 -0.03272 0.019343 0.809451 -0.58467
7.43100000 0.016379 0.037661 0.920536 -0.38651 0.033118 -0.01947
           0.920536 -0.38651 0.016830 0.037467 -0.03305 0.019572
           0.033118 -0.01947 -0.03305 0.019572 0.809171 -0.58500
7.43140717 0.016702 0.038285 0.920204 -0.38715 0.033707 -0.01987
           0.920204 -0.38715 0.017157 0.038089 -0.03364 0.019970
           0.033707 -0.01987 -0.03364 0.019970 0.808685 -0.58558
7.43200000 0.017197 0.039234 0.919696 -0.38813 0.034602 -0.02048
           0.919696 -0.38813 0.017657 0.039034 -0.03454 0.020579
           0.034602 -0.02048 -0.03454 0.020579 0.807944 -0.58645
7.43204120 0.017233 0.039301 0.919660 -0.38820 0.034666 -0.02052
           0.919660 -0.38820 0.017693 0.039101 -0.03460 0.020622
           0.034666 -0.02052 -0.03460 0.020622 0.807891 -0.58651
7.43266070 0.017785 0.040351 0.919094 -0.38927 0.035657 -0.02120
           0.919094 -0.38927 0.018252 0.040148 -0.03559 0.021301
           0.035657 -0.02120 -0.03559 0.021301 0.807068 -0.58747
7.43300000 0.018104 0.040952 0.918768 -0.38989 0.036223 -0.02158
           0.918768 -0.38989 0.018574 0.040747 -0.03615 0.021692
           0.036223 -0.02158 -0.03615 0.021692 0.806595 -0.58802
7.43326600 0.018362 0.041437 0.918504 -0.39038 0.036680 -0.02190
           0.918504 -0.39038 0.018835 0.041229 -0.03661 0.022008
           0.036680 -0.02190 -0.03661 0.022008 0.806214 -0.58847
7.43385743 0.018963 0.042559 0.917889 -0.39153 0.037737 -0.02263
           0.917889 -0.39153 0.019443 0.042347 -0.03766 0.022744
           0.037737 -0.02263 -0.03766 0.022744 0.805327 -0.58949
7.43400000 0.019114 0.042839 0.917735 -0.39182 0.038001 -0.02282
           0.917735 -0.39182 0.019596 0.042627 -0.03793 0.022929
           0.038001 -0.02282 -0.03793 0.022929 0.805105 -0.58974
7.43443531 0.019591 0.043719 0.917248 -0.39271 0.038829 -0.02340
           0.917248 -0.39271 0.020078 0.043504 -0.03875 0.023511
           0.038829 -0.02340 -0.03875 0.023511 0.804405 -0.59054
7.43499995 0.020247 0.044919 0.916579 -0.39394 0.039959 -0.02419
           0.916579 -0.39394 0.020741 0.044699 -0.03988 0.024311
           0.039959 -0.02419 -0.03988 0.024311 0.803447 -0.59162
7.43500000 0.020247 0.044919 0.916579 -0.39394 0.039959 -0.02419
           0.916579 -0.39394 0.020741 0.044699 -0.03988 0.024311
           0.039959 -0.02419 -0.03988 0.024311 0.803447 -0.59162
7.43555165 0.020933 0.046161 0.915881 -0.39520 0.041126 -0.02502
           0.915881 -0.39520 0.021434 0.045937 -0.04104 0.025146
           0.041126 -0.02502 -0.04104 0.025146 0.802451 -0.59274
7.43600000 0.021525 0.047225 0.915277 -0.39628 0.042126 -0.02574
           0.915277 -0.39628 0.022033 0.046996 -0.04204 0.025866
           0.042126 -0.02574 -0.04204 0.025866 0.801593 -0.59369
7.43609071 0.021650 0.047446 0.915151 -0.39651 0.042334 -0.02589
           0.915151 -0.39651 0.022159 0.047217 -0.04225 0.026017
           0.042334 -0.02589 -0.04225 0.026017 0.801414 -0.59389
7.43661742 0.022400 0.048777 0.914388 -0.39786 0.043583 -0.02680
           0.914388 -0.39786 0.022917 0.048542 -0.04350 0.026927
           0.043583 -0.02680 -0.04350 0.026927 0.800334 -0.59508
7.43700000 0.022978 0.049793 0.913800 -0.39889 0.044537 -0.02750
           0.913800 -0.39889 0.023502 0.049555 -0.04445 0.027628
           0.044537 -0.02750 -0.04445 0.027628 0.799504 -0.59599
7.43713206 0.023185 0.050154 0.913590 -0.39926 0.044876 -0.02775
           0.913590 -0.39926 0.023711 0.049915 -0.04479 0.027878
           0.044876 -0.02775 -0.04479 0.027878 0.799208 -0.59631
7.43763490 0.024008 0.051581 0.912754 -0.40070 0.046213 -0.02874
           0.912754 -0.40070 0.024542 0.051337 -0.04612 0.028873
           0.046213 -0.02874 -0.04612 0.028873 0.798035 -0.59757
7.43800000 0.024643 0.052672 0.912109 -0.40181 0.047235 -0.02950
           0.912109 -0.40181 0.025184 0.052423 -0.04714 0.029639
           0.047235 -0.02950 -0.04714 0.029639 0.797132 -0.59854
7.43812623 0.024871 0.053060 0.911879 -0.40220 0.047598 -0.02977
           0.911879 -0.40220 0.025414 0.052810 -0.04750 0.029914
           0.047598 -0.02977 -0.04750 0.029914 0.796810 -0.59888
7.43860629 0.025776 0.054593 0.910961 -0.40375 0.049033 -0.03086
           0.910961 -0.40375 0.026328 0.054336 -0.04893 0.031003
           0.049033 -0.03086 -0.04893 0.031003 0.795531 -0.60023
7.43900000 0.026570 0.055920 0.910157 -0.40510 0.050274 -0.03181
           0.910157 -0.40510 0.027130 0.055658 -0.05017 0.031956
           0.050274 -0.03181 -0.05017 0.031956 0.794415 -0.60140
7.43907536 0.026727 0.056182 0.909997 -0.40536 0.050519 -0.03200
           0.909997 -0.40536 0.027289 0.055919 -0.05042 0.032145
           0.050519 -0.03200 -0.05042 0.032145 0.794194 -0.60163
7.43953368 0.027726 0.057830 0.908986 -0.40703 0.052058 -0.03319
           0.908986 -0.40703 0.028297 0.057561 -0.05195 0.033343
           0.052058 -0.03319 -0.05195 0.033343 0.792796 -0.60307
7.43998149 0.028777 0.059540 0.907922 -0.40875 0.053654 -0.03444
           0.907922 -0.40875 0.029358 0.059264 -0.05354 0.034599
           0.053654 -0.03444 -0.05354 0.034599 0.791333 -0.60456
7.44000000 0.028822 0.059612 0.907877 -0.40883 0.053722 -0.03449
           0.907877 -0.40883 0.029404 0.059336 -0.05361 0.034653
           0.053722 -0.03449 -0.05361 0.034653 0.791271 -0.60463
7.44041905 0.029883 0.061314 0.906804 -0.41054 0.055308 -0.03575
           0.906804 -0.41054 0.030474 0.061031 -0.05519 0.035919
           0.055308 -0.03575 -0.05519 0.035919 0.789801 -0.60610
7.44084658 0.031047 0.063157 0.905627 -0.41240 0.057024 -0.03714
           0.905627 -0.41240 0.031650 0.062866 -0.05690 0.037305
           0.057024 -0.03714 -0.05690 0.037305 0.788195 -0.60770
7.44100000 0.031487 0.063846 0.905182 -0.41310 0.057665 -0.03766
           0.905182 -0.41310 0.032094 0.063552 -0.05754 0.037829
           0.057665 -0.03766 -0.05754 0.037829 0.787590 -0.60829
7.44126431 0.032275 0.065070 0.904386 -0.41433 0.058803 -0.03859
           0.904386 -0.41433 0.032890 0.064771 -0.05868 0.038764
           0.058803 -0.03859 -0.05868 0.038764 0.786510 -0.60935
7.44167247 0.033571 0.067058 0.903077 -0.41633 0.060650 -0.04012
           0.903077 -0.41633 0.034197 0.066751 -0.06052 0.040300
           0.060650 -0.04012 -0.06052 0.040300 0.784741 -0.61106
7.44200000 0.034687 0.068745 0.901951 -0.41803 0.062216 -0.04144
           0.901951 -0.41803 0.035323 0.068431 -0.06208 0.041619
           0.062216 -0.04144 -0.06208 0.041619 0.783223 -0.61250
7.44207128 0.034940 0.069124 0.901696 -0.41841 0.062567 -0.04173
           0.901696 -0.41841 0.035578 0.068808 -0.06243 0.041918
           0.062567 -0.04173 -0.06243 0.041918 0.782881 -0.61283
7.44246095 0.036387 0.071272 0.900236 -0.42057 0.064557 -0.04343
           0.900236 -0.42057 0.037038 0.070947 -0.06442 0.043624
           0.064557 -0.04343 -0.06442 0.043624 0.780925 -0.61466
7.44284169 0.037919 0.073506 0.898691 -0.42282 0.066623 -0.04523
           0.898691 -0.42282 0.038583 0.073171 -0.06648 0.045425
           0.066623 -0.04523 -0.06648 0.045425 0.778865 -0.61655
7.44300000 0.038593 0.074478 0.898011 -0.42380 0.067521 -0.04602
           0.898011 -0.42380 0.039263 0.074138 -0.06737 0.046217
           0.067521 -0.04602 -0.06737 0.046217 0.777962 -0.61738
7.44321371 0.039541 0.075831 0.897055 -0.42515 0.068770 -0.04713
           0.897055 -0.42515 0.040219 0.075485 -0.06862 0.047329
           0.068770 -0.04713 -0.06862 0.047329 0.776695 -0.61852
7.44357720 0.041263 0.078250 0.895321 -0.42758 0.071001 -0.04913
           0.895321 -0.42758 0.041955 0.077893 -0.07084 0.049342
           0.071001 -0.04913 -0.07084 0.049342 0.774405 -0.62055
7.44393236 0.043090 0.080769 0.893480 -0.43011 0.073319 -0.05126
           0.893480 -0.43011 0.043797 0.080400 -0.07315 0.051474
           0.073319 -0.05126 -0.07315 0.051474 0.771986 -0.62266
7.44400000 0.043456 0.081267 0.893112 -0.43061 0.073778 -0.05168
           0.893112 -0.43061 0.044166 0.080896 -0.07361 0.051900
           0.073778 -0.05168 -0.07361 0.051900 0.771504 -0.62308
7.44427939 0.045032 0.083392 0.891524 -0.43275 0.075730 -0.05351
           0.891524 -0.43275 0.045755 0.083011 -0.07556 0.053733
           0.075730 -0.05351 -0.07556 0.053733 0.769429 -0.62485
7.44461846 0.047100 0.086126 0.889443 -0.43549 0.078236 -0.05590
           0.889443 -0.43549 0.047839 0.085731 -0.07806 0.056132
           0.078236 -0.05590 -0.07806 0.056132 0.766723 -0.62712
7.44494977 0.049303 0.088974 0.887225 -0.43834 0.080842 -0.05844
           0.887225 -0.43834 0.050059 0.088565 -0.08065 0.058680
           0.080842 -0.05844 -0.08065 0.058680 0.763856 -0.62946
7.44500000 0.049655 0.089422 0.886872 -0.43879 0.081252 -0.05885
           0.886872 -0.43879 0.050413 0.089011 -0.08106 0.059086
           0.081252 -0.05885 -0.08106 0.059086 0.763400 -0.62983
7.44527348 0.051655 0.091944 0.884860 -0.44132 0.083553 -0.06114
           0.884860 -0.44132 0.052428 0.091520 -0.08336 0.061391
           0.083553 -0.06114 -0.08336 0.061391 0.760813 -0.63190
7.44558977 0.054167 0.095040 0.882333 -0.44442 0.086372 -0.06402